ITEM: TIMESTEP
0
ITEM: NUMBER OF ATOMS
27
ITEM: BOX BOUNDS pp pp pp
0 2.000000
0 2.000000
0 2.000000
ITEM: ATOMS id x y z vx vy vz 
0 0.333333 0.333333 0.333333 0.039953 -0.070797 -0.266215
1 0.333333 0.333333 1.000000 -0.104404 0.282852 0.044980
2 0.333333 0.333333 1.666667 0.321158 -0.045094 0.175302
3 0.333333 1.000000 0.333333 0.223609 -0.529109 -0.102149
4 0.333333 1.000000 1.000000 0.259923 -0.201929 0.041050
5 0.333333 1.000000 1.666667 -0.181751 0.580681 -0.557097
6 0.333333 1.666667 0.333333 0.115549 -0.202214 0.539578
7 0.333333 1.666667 1.000000 -0.280608 0.101111 0.096806
8 0.333333 1.666667 1.666667 0.044301 -0.028938 0.016913
9 1.000000 0.333333 0.333333 0.061910 -0.143609 -0.275890
10 1.000000 0.333333 1.000000 -0.051022 0.368115 0.040468
11 1.000000 0.333333 1.666667 -0.303198 0.211419 0.203098
12 1.000000 1.000000 0.333333 -0.187440 0.424573 0.469439
13 1.000000 1.000000 1.000000 -0.320799 -0.230098 -0.402037
14 1.000000 1.000000 1.666667 0.423104 -0.262891 0.255950
15 1.000000 1.666667 0.333333 -0.104284 -0.354708 -0.045940
16 1.000000 1.666667 1.000000 0.041966 -0.241294 0.034628
17 1.000000 1.666667 1.666667 0.146174 0.262679 0.184432
18 1.666667 0.333333 0.333333 -0.265951 0.084296 0.396684
19 1.666667 0.333333 1.000000 -0.135015 -0.047713 -0.369483
20 1.666667 0.333333 1.666667 0.040235 0.089658 -0.238433
21 1.666667 1.000000 0.333333 0.254835 -0.131143 0.116382
22 1.666667 1.000000 1.000000 -0.016870 0.305077 -0.047249
23 1.666667 1.000000 1.666667 -0.166377 0.091160 0.185579
24 1.666667 1.666667 0.333333 0.042210 0.231328 0.044451
25 1.666667 1.666667 1.000000 0.044732 -0.541367 -0.309457
26 1.666667 1.666667 1.666667 0.058061 -0.002045 -0.231790
